LAMMPS data file via write_data, version 2 Aug 2023, timestep = 20539, units = real

900 atoms
2 atom types
600 bonds
1 bond types
300 angles
1 angle types

-10.52416935153064 10.52416935153064 xlo xhi
-10.52416935153064 10.52416935153064 ylo yhi
-10.52416935153064 10.52416935153064 zlo zhi

Masses

1 15.9994
2 1.0079

PairIJ Coeffs # lj/cut/tip4p/long

1 1 0.16275 3.16435 9
1 2 0 2.08218 9
2 2 0 1 9

Bond Coeffs # harmonic

1 5000 0.9572

Angle Coeffs # harmonic

1 5000 104.52

Atoms # full

10 4 1 -1.04844 -5.652035396712973 -1.1591316072631255 -8.830753652775124 0 0 0
11 4 2 0.52422 -5.123269459440528 -0.7524971362352186 -8.144202454152397 0 0 0
380 127 2 0.52422 -10.334498951586403 -4.963473857185171 -0.1998296514013056 1 0 0
52 18 1 -1.04844 -9.013279621187461 -6.920596495534648 -7.981603099949334 0 0 0
53 18 2 0.52422 -9.434755848637083 -7.701701596152237 -7.623093520719148 0 0 0
57 19 2 0.52422 -7.214054455829259 -3.8453160736255843 -8.391825933459517 0 0 0
117 39 2 0.52422 -7.434522700442702 -6.06881223809843 -0.6418739856088145 0 0 0
138 46 2 0.52422 -6.752775328815153 -4.0298210936319006 -2.9695187488520594 0 0 0
148 50 1 -1.04844 -6.559275421956787 -8.108636415119973 -7.963769121083006 0 0 0
150 50 2 0.52422 -7.046716904332939 -8.930067617473401 -7.900941901062751 0 0 0
172 58 1 -1.04844 -3.6727031946855915 -2.872477489196309 -4.286293182030171 0 0 0
174 58 2 0.52422 -3.6579338920196838 -2.7216879174242417 -5.231458435342713 0 0 0
868 290 1 -1.04844 -7.295211585732575 -10.29165570538195 -0.7473965292611062 0 1 0
41 14 2 0.52422 -6.588274390142422 -6.89425251520756 -2.887532873119846 1 0 0
40 14 1 -1.04844 -5.911047684150521 -7.038925577462739 -3.5483889070557257 1 0 0
42 14 2 0.52422 -5.909789263446726 -6.2365392177834265 -4.0703790400695095 1 0 0
55 19 1 -1.04844 -6.8312746366671 -3.6049378235984078 -9.235625019267307 0 0 0
95 32 2 0.52422 -4.98826235363701 -9.038394173464233 -7.41256035327273 0 0 0
181 61 1 -1.04844 -8.661942866409579 -7.245677330981529 -5.071654439483756 0 0 0
854 285 2 0.52422 -4.230283396639991 -1.765734119205522 -2.637655829884178 0 0 0
183 61 2 0.52422 -9.0489093770322 -8.118783802258807 -5.006552987628705 0 0 0
136 46 1 -1.04844 -7.370991155036576 -3.753093733450016 -2.293109265782581 0 0 0
182 61 2 0.52422 -7.7174050417784095 -7.399615363187323 -5.050604825502526 0 0 0
113 38 2 0.52422 -4.505942949890998 -6.122888938018935 -2.5877711640060497 0 0 0
853 285 1 -1.04844 -4.6942764925709675 -1.597156568781891 -1.817540589287443 0 0 0
206 69 2 0.52422 -9.393536973918089 -7.473498233472851 -9.539153032896769 0 0 0
141 47 2 0.52422 -8.182733568670084 -3.137042090992467 -6.100025380733909 1 0 0
185 62 2 0.52422 -6.445369402331637 -4.149424400656453 -5.139955447986445 0 0 0
139 47 1 -1.04844 -7.951210732191232 -3.886174043836606 -6.649109288734914 1 0 0
61 21 1 -1.04844 -8.194069504898577 -7.036619995923838 -1.8611212513892603 1 0 0
184 62 1 -1.04844 -5.87557731504161 -4.454362594982982 -4.433808091386292 0 0 0
140 47 2 0.52422 -8.61316360064983 -4.546877829279224 -6.445190628052089 1 0 0
186 62 2 0.52422 -5.187688866022569 -3.791115943861792 -4.377124516937472 0 0 0
63 21 2 0.52422 -8.906889775261808 -6.603931435599842 -2.3311906926306794 1 0 0
119 40 2 0.52422 3.925166728432764 -5.470855139360511 -9.962870871618968 0 0 0
564 188 2 0.52422 -9.08434801635515 -3.457075790226491 -1.8567487946741874 0 0 0
563 188 2 0.52422 -10.054448712381495 -2.3037591613759343 -1.7124646696000223 0 0 0
149 50 2 0.52422 -7.216682412900077 -7.427865522916042 -7.8200142181177945 0 0 0
44 15 2 0.52422 -8.094725930729922 -0.5011546436130736 -5.697115229187776 1 0 0
855 285 2 0.52422 -5.568646905310689 -1.3181730280901505 -2.089456657935248 0 0 0
62 21 2 0.52422 -8.500115432981236 -7.9348078990771835 -1.735077336615836 1 0 0
137 46 2 0.52422 -6.961386874110629 -4.01970159536938 -1.4700403127852617 0 0 0
56 19 2 0.52422 -6.634538130058515 -2.671806786393108 -9.152803973173384 0 0 0
303 101 2 0.52422 -4.966537086523523 -9.829061296098462 -9.492388576290844 0 0 1
411 137 2 0.52422 5.5546404248760854 -7.606570511204957 -9.22401642407776 0 0 1
76 26 1 -1.04844 10.480452998380217 -4.87709761929187 -7.418926006476187 -1 0 0
30 10 2 0.52422 -4.608917008282146 -10.18561862784603 -3.1330805149249805 0 0 0
562 188 1 -1.04844 -9.968538274155254 -3.2445141602056244 -1.5578796019506047 0 0 0
75 25 2 0.52422 -5.1428270364595035 -4.428418747044289 -9.452115796937482 0 0 0
28 10 1 -1.04844 -5.551494226487344 -10.236250145461732 -3.2920809821087076 0 0 0
432 144 2 0.52422 -5.3140572102213275 -7.644199861742812 -9.380183717773031 0 0 1
458 153 2 0.52422 -9.845896578284638 -3.235672726488259 -10.090342245764798 1 0 1
45 15 2 0.52422 -8.978410916504824 -1.569184622572811 -5.088455482289971 1 0 0
43 15 1 -1.04844 -8.76641916704233 -1.1456071715762235 -5.9202832029033345 1 0 0
164 55 2 0.52422 -10.18164263988739 -6.098958447157346 -4.2565460764017615 1 0 0
29 10 2 0.52422 -5.7697324175855185 -9.402498465831286 -3.708644672101828 0 0 0
163 55 1 -1.04844 10.494116451070889 -5.891039755460734 -3.399663031062314 0 0 0
221 74 2 0.52422 -5.135245160131357 -7.671886945789609 -0.9892162868277214 0 0 0
218 73 2 0.52422 -3.2485697426010898 -4.20779461712004 -8.250630225226772 0 0 0
219 73 2 0.52422 -2.3221805960591286 -3.1302831489570924 -7.728307018933494 0 0 0
217 73 1 -1.04844 -2.7189177597254544 -3.968232706047309 -7.490118812685699 0 0 0
54 18 2 0.52422 -9.58695611195755 -6.198817430051359 -7.7242436503604806 0 0 0
222 74 2 0.52422 -5.891831271101992 -8.955095813817318 -0.719026369262016 0 0 0
738 246 2 0.52422 -7.448495997058229 -1.92754743490004 -2.5504371812440105 0 0 0
736 246 1 -1.04844 -7.420304129372036 -0.9851892545723704 -2.716162299751735 0 0 0
74 25 2 0.52422 -4.334093112602109 -5.6192998046772535 -9.920949074127515 0 0 0
12 4 2 0.52422 -5.144202895125124 -1.031516171965988 -9.632076136739219 0 0 0
126 42 2 0.52422 -10.394418421611874 -1.179677752645384 -6.702072615170186 0 0 0
77 26 2 0.52422 -10.31558873134417 -4.10122093310195 -7.919584718614313 0 0 0
89 30 2 0.52422 -7.397213408821811 -0.410999839086994 -9.23069749002697 0 0 0
737 246 2 0.52422 -8.159105506206675 -0.6321166690084095 -2.220371035425474 0 0 0
220 74 1 -1.04844 -5.170130665161984 -8.41848372737465 -0.3911629332018176 0 0 0
146 49 2 0.52422 2.156872740730785 -6.247832248232405 -0.07174112166995705 0 0 0
676 226 1 -1.04844 -10.034833413186114 -9.693539630594962 -4.438857518850813 1 1 0
7 3 1 -1.04844 -9.952367790069284 -0.4666090300798498 -1.5846765717592266 0 0 0
200 67 2 0.52422 9.138834975993744 -6.981150575924897 -0.47703677654743437 0 0 0
666 222 2 0.52422 -6.513165452498996 -0.07711206433031137 -4.2893228075347585 0 0 0
430 144 1 -1.04844 -4.60222886017518 -7.5023995495530915 -10.004274671337644 0 0 1
431 144 2 0.52422 -3.804299012284357 -7.635353639954665 -9.492481710977547 0 0 1
112 38 1 -1.04844 -3.724188825059205 -5.84803308968557 -2.1085956899232894 0 0 0
173 58 2 0.52422 -3.1150711407193565 -3.639686516698876 -4.15692285092245 0 0 0
207 69 2 0.52422 10.448727258059291 -8.172143023993979 -10.130196020399529 -1 0 0
39 13 2 0.52422 -3.7169132795015427 -2.8132362215645896 -1.002324210171384 0 0 0
94 32 1 -1.04844 -4.09265750047573 -9.039159150862018 -7.074648793047772 0 0 0
96 32 2 0.52422 -4.189001445072627 -9.221297439582244 -6.139856312676242 0 0 0
114 38 2 0.52422 -3.0097029405514846 -5.947405710203973 -2.73782379003101 0 0 0
34 12 1 -1.04844 -1.9492693962325038 -0.8954073629338986 -7.970690353731744 0 0 0
19 7 1 -1.04844 -2.264991850192226 -5.142988084724706 -4.926610089565541 0 0 0
20 7 2 0.52422 -2.4833847119491317 -4.861221679041791 -5.814983647978549 0 0 0
352 118 1 -1.04844 1.7100544596287843 -3.6353681577039394 -9.377146214932196 0 0 1
276 92 2 0.52422 -2.114164617794728 -7.2725116065655335 -0.7016202873310036 0 0 0
36 12 2 0.52422 -2.7924453018433244 -0.793411214914256 -7.529159378990959 0 0 0
35 12 2 0.52422 -1.9795588106099444 -0.268680554852752 -8.693599062613181 0 0 0
467 156 2 0.52422 1.3937140750937704 -10.005625774500642 -8.358261101224517 0 1 0
468 156 2 0.52422 -0.10777366612103734 -10.040008069321138 -8.549046926525094 0 1 0
38 13 2 0.52422 -3.4696886364538173 -4.289481216658744 -0.7750982025765563 0 0 0
25 9 1 -1.04844 -0.602728475537706 -4.796166590276975 -0.47180719928641324 0 0 0
275 92 2 0.52422 -2.973572885035498 -8.480801801833099 -0.3958476361617631 0 0 0
247 83 1 -1.04844 2.785065731283977 -1.5332904771251457 -1.5036319889089782 0 0 0
23 8 2 0.52422 1.164134934241556 -7.850249206145246 -7.895151753198739 0 0 0
111 37 2 0.52422 -2.644401237161869 -7.237264777023009 -7.639995489700677 0 0 0
166 56 1 -1.04844 -3.1202032302967124 -9.36784990780283 -4.250317244017104 0 0 0
37 13 1 -1.04844 -3.0178807367032743 -3.448747646638271 -0.8481246229350639 0 0 0
109 37 1 -1.04844 -2.2782048900822627 -7.3429856765500725 -8.518070576842625 0 0 0
110 37 2 0.52422 -1.6104470992949746 -6.660252660653739 -8.583417586250672 0 0 0
21 7 2 0.52422 -1.8949692724794502 -6.018909705099081 -5.036795199733423 0 0 0
160 54 1 -1.04844 0.032363757535637916 -2.4793526150874623 -6.398166176950938 0 0 0
162 54 2 0.52422 -0.4683895013271311 -1.864339659222301 -6.934168540355739 0 0 0
168 56 2 0.52422 -2.468446195026239 -8.839210974532032 -4.710808454774006 0 0 0
4 2 1 -1.04844 -0.26404187779346877 -5.087464977898948 -8.220760695464314 0 0 0
5 2 2 0.52422 -0.8726069354765027 -4.655683611974335 -7.621171367648676 0 0 0
6 2 2 0.52422 0.28233317605835495 -5.633929360634225 -7.6558291783711825 0 0 0
49 17 1 -1.04844 -1.1238299331670625 -7.724468545786638 -5.1593714834049225 0 0 0
50 17 2 0.52422 -0.6253405224545858 -7.684734935714436 -4.343143168805599 0 0 0
51 17 2 0.52422 -0.45773585252241134 -7.751104620846643 -5.846325755027378 0 0 0
93 31 2 0.52422 2.860673785778955 -6.8750770721879775 -2.350271653413513 0 0 0
127 43 1 -1.04844 0.7191902966810559 -3.138324765342614 -2.184402002613032 0 0 0
128 43 2 0.52422 0.2168560701091451 -3.6303161921261946 -1.5348619037986495 0 0 0
129 43 2 0.52422 1.3934113352231012 -2.687989274994642 -1.6755587247265407 0 0 0
130 44 1 -1.04844 0.29889470410997454 -8.287828977452916 -2.7974334840879678 0 0 0
131 44 2 0.52422 1.234370463263458 -8.189704526344523 -2.619801228777151 0 0 0
132 44 2 0.52422 -0.10172660004330325 -8.375482212322947 -1.9324987974994805 0 0 0
145 49 1 -1.04844 2.0787245009966764 -5.971436700235251 -0.9848652965704279 0 0 0
161 54 2 0.52422 0.24468287638123698 -1.9882440545043512 -5.604423832404741 0 0 0
187 63 1 -1.04844 0.3640261215603626 -0.8617266350388935 -4.00927827715131 0 0 0
188 63 2 0.52422 0.04986657131666128 -1.4821397662651226 -3.35148841017223 0 0 0
189 63 2 0.52422 1.3021259964075291 -0.7827442852450925 -3.835991513847322 0 0 0
330 110 2 0.52422 -2.6157185805227785 -9.958867181524989 -8.263947766930091 0 0 1
24 8 2 0.52422 1.7643219153999965 -7.381308628315784 -6.5867485913426025 0 0 0
27 9 2 0.52422 -1.492214212204443 -4.444711291366944 -0.43192339909129984 0 0 0
15 5 2 0.52422 1.739570261038729 -0.30282036427369796 -8.143510174493116 0 0 0
22 8 1 -1.04844 0.977840139653436 -7.309390540279393 -7.127648061349464 0 0 0
147 49 2 0.52422 1.1741909091884626 -5.669330592922426 -1.0675949926184263 0 0 0
274 92 1 -1.04844 -2.0736586315869285 -8.223018551036535 -0.5958407777600989 0 0 0
354 118 2 0.52422 1.862264872827211 -2.984842012390181 -8.691622110097668 0 0 1
159 53 2 0.52422 8.31407708877458 -0.9531596565633684 -0.5857999555938296 0 0 0
13 5 1 -1.04844 2.33385911864217 -0.9564189562096157 -8.512191667333974 0 0 0
466 156 1 -1.04844 0.675520035814209 -9.548015513110377 -8.7953937830758 0 1 0
91 31 1 -1.04844 2.8014054431727917 -7.436549763080661 -3.1232743012571182 0 0 0
353 118 2 0.52422 0.9791443289553747 -4.1607172293061145 -9.051446759899566 0 0 1
333 111 2 0.52422 -0.8897340351532748 -2.05603497038412 -10.047384335952323 0 0 1
538 180 1 -1.04844 3.066338599578904 -0.3789724888312769 -3.7908179431199382 0 0 0
14 5 2 0.52422 3.0300311583534167 -0.4433946903207051 -8.922611789959035 0 0 0
612 204 2 0.52422 6.597143251385196 -10.160620819147946 -0.9318781837198244 0 1 0
329 110 2 0.52422 -2.4326908883897094 -10.079566143370961 -9.761942050090125 0 0 1
539 180 2 0.52422 3.0368305890800347 -0.8545381946339887 -2.9605938830187775 0 0 0
559 187 1 -1.04844 8.312937484971547 -0.19236858361295361 -10.212046070261808 0 0 0
176 59 2 0.52422 1.8240684144993526 -3.9091783874642516 -3.43985596437562 0 0 0
151 51 1 -1.04844 3.40893746063041 -7.798420298867846 -6.126906348645778 0 0 0
153 51 2 0.52422 3.132301136282825 -7.724008374589877 -5.213543921460043 0 0 0
249 83 2 0.52422 3.5362892880843244 -2.0157410509927995 -1.158376724475069 0 0 0
167 56 2 0.52422 -2.674891230146346 -10.196258294224924 -4.072175785670414 0 0 0
175 59 1 -1.04844 2.585356249729573 -4.279996226014577 -3.8862108975952694 0 0 0
177 59 2 0.52422 2.2943447422027052 -5.143287649033567 -4.180033557239272 0 0 0
209 70 2 0.52422 7.88978403393231 -3.5633252669410176 -5.841626850453185 -1 0 0
607 203 1 -1.04844 7.796696852660498 -0.5883530154382957 -5.474484988461201 0 0 0
108 36 2 0.52422 6.433123441923842 -6.250666690284862 -3.3422168320189236 0 0 0
409 137 1 -1.04844 4.739243109160656 -8.003365837059723 -9.530569716889746 0 0 1
83 28 2 0.52422 -10.124156654259094 -3.65262560572255 -3.8465849912260417 1 0 0
410 137 2 0.52422 4.049818929174348 -7.455374366314034 -9.155478008392572 0 0 1
568 190 1 -1.04844 7.784599801819068 -8.909838535990286 -5.942283030206848 0 1 0
457 153 1 -1.04844 10.388930031060179 -3.1602478853785723 -9.591536912002613 0 0 1
561 187 2 0.52422 7.697461551548171 -0.8564930054444151 -9.901513418326452 0 0 0
608 203 2 0.52422 7.135571542142332 -1.2804793847901106 -5.487586915882338 0 0 0
124 42 1 -1.04844 9.854464065801801 -1.5151082795241155 -7.107849590215309 -1 0 0
16 6 1 -1.04844 5.63367401541935 -2.5394865161462388 -1.3408971844938105 0 0 0
84 28 2 0.52422 10.05525607497925 -3.073980318813473 -4.9430261461950895 0 0 0
789 263 2 0.52422 8.190896718807943 -9.901486431181366 -2.5173409391552735 0 1 0
69 23 2 0.52422 4.108314654339843 -5.43187247710635 -2.2246912074001735 0 0 0
555 185 2 0.52422 7.890016394861037 -8.167700701764662 -7.559960240531353 0 1 0
80 27 2 0.52422 5.302455864349291 -9.935306302442173 -2.501526050770755 0 0 0
120 40 2 0.52422 3.0766186957181887 -4.683444332434863 -8.987165933733158 0 0 0
199 67 1 -1.04844 9.020788811286616 -7.929930393352874 -0.43038937928497845 0 0 0
100 34 1 -1.04844 6.250769542823525 -2.7606983205958784 -6.259774919493626 0 0 0
195 65 2 0.52422 2.935515173474405 -2.8177293717308727 -5.2991735144858945 0 0 0
427 143 1 -1.04844 3.3247433088582703 -10.503472509052893 -8.365211965774588 0 0 1
194 65 2 0.52422 2.9950138853056316 -1.6431000628459902 -6.252462031433271 0 0 0
609 203 2 0.52422 8.504155010925997 -0.9217596565830952 -6.026430330790663 0 0 0
553 185 1 -1.04844 7.654226270735995 -8.016310135416967 -8.475265929006644 0 1 0
125 42 2 0.52422 10.084414241475143 -1.6330629412875943 -8.02953403030444 -1 0 0
82 28 1 -1.04844 -10.120346808181539 -3.0090770589110223 -4.55519325382783 1 0 0
70 24 1 -1.04844 7.785756511616592 -0.8374130723515112 -2.125351929105859 0 0 0
105 35 2 0.52422 5.996254849086691 -2.2846516620688817 -9.506659611748335 0 0 0
92 31 2 0.52422 3.533399344613036 -8.046791476884833 -3.0333403492400333 0 0 0
118 40 1 -1.04844 3.8008476554498696 -5.3080561334145555 -9.027809431196546 0 0 0
142 48 1 -1.04844 8.275310444103136 -5.381093924088772 -9.576909724784903 -1 0 0
143 48 2 0.52422 8.968716058494161 -4.967225392837876 -9.062910902279286 -1 0 0
68 23 2 0.52422 5.374740241112718 -4.609433229757532 -2.1160392410439695 0 0 0
103 35 1 -1.04844 6.361022871044122 -1.607089394079372 -8.937318804892147 0 0 0
78 26 2 0.52422 9.847941031684377 -4.55355075229027 -6.777408742499054 -1 0 0
106 36 1 -1.04844 7.346070321350625 -6.052346985088097 -3.5507671636707148 0 0 0
144 48 2 0.52422 7.942370301209413 -6.079044642668199 -9.012720591878816 -1 0 0
193 65 1 -1.04844 3.5433837010955553 -2.189826104355019 -5.6897234794122316 0 0 0
215 72 2 0.52422 9.043379044488423 -3.2975714960660287 -1.6239803143966647 0 0 0
18 6 2 0.52422 5.686153379442297 -2.62433736257932 -0.3888770635387022 0 0 0
540 180 2 0.52422 3.3377798004535215 -1.034514406681641 -4.433381497075446 0 0 0
570 190 2 0.52422 6.908363102954768 -9.28063664652062 -6.047249976419357 0 1 0
208 70 1 -1.04844 8.510723320576853 -4.239595555294712 -5.570718200946474 -1 0 0
494 165 2 0.52422 5.871220183340691 -5.166500635424491 -6.752328743666908 0 1 0
107 36 2 0.52422 7.6190291777824495 -5.435910883092272 -2.8712118474005868 0 0 0
787 263 1 -1.04844 9.068247856965263 -9.518963535816312 -2.5022383794546155 0 1 0
554 185 2 0.52422 7.541046133906994 -8.893176312491534 -8.842128243319321 0 1 0
67 23 1 -1.04844 5.061482386974243 -5.511220865261613 -2.1863593062849045 0 0 0
152 51 2 0.52422 4.153541509080803 -7.201513571399682 -6.201532403154534 0 0 0
668 223 2 0.52422 4.61887959542112 -9.293289458358336 -6.105199086395079 0 1 0
667 223 1 -1.04844 5.260805353447772 -9.800183743093108 -5.6079209483392995 0 1 0
669 223 2 0.52422 5.065634717521247 -9.601995895828372 -4.691988958006442 0 1 0
257 86 2 0.52422 10.313231743624796 -8.858395658119358 -6.610318950330873 -1 0 1
79 27 1 -1.04844 4.588590342294934 -9.579724770333016 -3.0309258864047957 0 0 0
405 135 2 0.52422 5.424012684363268 -6.2953843613165565 -0.6155393826620141 0 0 0
210 70 2 0.52422 7.99463826972435 -4.835732227683572 -5.027971759380452 -1 0 0
258 86 2 0.52422 9.76884493958695 -9.6046314915776 -7.809826954746058 -1 0 1
428 143 2 0.52422 3.7935634271531455 -9.682048602516739 -8.512739019082542 0 0 1
216 72 2 0.52422 8.626411952901472 -4.419355863376581 -0.6967359538515829 0 0 0
214 72 1 -1.04844 8.329542984678545 -3.9117068352498636 -1.4520208170132491 0 0 0
101 34 2 0.52422 5.309421114834384 -2.8329042607594825 -6.101828554696917 0 0 0
493 165 1 -1.04844 5.170957343521652 -5.819097711953364 -6.758738291861361 0 1 0
256 86 1 -1.04844 -10.4717392102874 -9.24055761408463 -7.447507216153557 0 0 1
788 263 2 0.52422 9.06071512778671 -8.9309465087483 -1.7469336339864991 0 1 0
495 165 2 0.52422 4.611915251111691 -5.564036490310625 -7.492710770885173 0 1 0
102 34 2 0.52422 6.319322744351856 -2.44012843646345 -7.1591265194851434 0 0 0
104 35 2 0.52422 5.7472022704833154 -0.8762067725686187 -9.010365521067664 0 0 0
165 55 2 0.52422 9.547120455881954 -5.923768180800041 -3.535383341007332 0 0 0
17 6 2 0.52422 6.542995115227134 -2.585315339746029 -1.6364130602393985 0 0 0
569 190 2 0.52422 7.932263015761373 -8.906967977826882 -4.996513227710216 0 1 0
81 27 2 0.52422 3.8733142670229253 -10.206336831267636 -2.9212355606908735 0 0 0
3 1 2 0.52422 -8.965655837566283 -10.30820699456283 -7.458147287533643 1 0 0
205 69 1 -1.04844 -9.672321679218017 -7.996908024254719 -10.290568460325963 0 0 0
73 25 1 -1.04844 -4.2721137290421085 -4.677347565440471 -9.762260808770872 0 0 0
618 206 2 0.52422 -3.526917473536942 -0.25410588931354994 -6.001968708320783 0 0 0
248 83 2 0.52422 2.648636454806617 -0.8218037113270675 -0.8779584804863436 0 0 0
156 52 2 0.52422 -1.4298062872054977 -0.35252987137115 -4.366636487734015 0 0 0
677 226 2 0.52422 10.353599448184196 -9.606272046037413 -3.7509570144059294 0 1 0
646 216 1 -1.04844 -8.696405750259006 -10.428225094134035 -10.511023709678712 0 1 0
459 153 2 0.52422 9.698539780041644 -3.177234725314525 -10.254386070672847 0 0 1
518 173 2 0.52422 1.371774402109459 -10.229384625114713 -3.1197845251367218 0 1 0
115 39 1 -1.04844 -6.928279679296874 -5.4225712733530465 -0.14954084979527593 0 0 0
616 206 1 -1.04844 -4.276525904501153 -0.30863943030414376 -6.594770205529069 0 0 0
71 24 2 0.52422 8.587184177955512 -0.5607187528397084 -2.569704849266789 0 0 0
72 24 2 0.52422 7.086072607041517 -0.3640569580605586 -2.5755403288109413 0 0 0
154 52 1 -1.04844 -2.294643471197869 -0.043331107539717806 -4.636355934013237 0 0 0
8 3 2 0.52422 -10.37914445786813 -0.020830727544121075 -2.3164152420234547 0 0 0
201 67 2 0.52422 8.145156980600772 -8.044965267244828 -0.06115796890133751 0 0 0
648 216 2 0.52422 -8.955044678989003 -9.506597275695968 -10.514133481140982 0 1 0
229 77 1 -1.04844 -9.373652246074727 -6.2898826177757385 8.712899089914563 0 0 0
230 77 2 0.52422 -9.292515674548998 -6.989176662925285 9.361515333394761 0 0 0
231 77 2 0.52422 -10.30606373404361 -6.269547526752181 8.497279192556212 0 0 0
241 81 1 -1.04844 -7.83797560825349 -5.448522433297429 2.444114503909258 0 0 0
242 81 2 0.52422 -7.728480623588675 -6.39780894276789 2.387832246253879 0 0 0
250 84 1 -1.04844 -4.65567649343517 -5.145030984005254 6.075417429224716 0 0 0
251 84 2 0.52422 -5.286205116268709 -5.639964766910286 6.598646327746289 0 0 0
252 84 2 0.52422 -5.004876629785683 -5.177591579128167 5.184745156840718 0 0 0
268 90 1 -1.04844 -8.718941026542455 -3.289927514229835 9.586114842811734 0 0 0
158 53 2 0.52422 9.124690846522567 -0.11505783992777374 0.379893096180961 0 0 0
304 102 1 -1.04844 -4.200032574970827 -5.994392779561418 1.1397647858828694 0 0 0
306 102 2 0.52422 -4.649582463876666 -6.033186140741568 1.9839775812896416 0 0 0
313 105 1 -1.04844 -8.388125119917047 -7.6380227346509 4.9305058725792765 0 0 0
314 105 2 0.52422 -7.8052066209216715 -7.864078133192807 4.205660737251501 0 0 0
316 106 1 -1.04844 -7.056520922627826 -6.290384528400105 7.119925741871031 0 0 0
317 106 2 0.52422 -7.724297089526385 -6.266792108820531 7.805357480136722 0 0 0
318 106 2 0.52422 -7.429445662050361 -6.852533540152493 6.440798535399379 0 0 0
418 140 1 -1.04844 -8.05695062063344 -3.889107706034215 6.713408794833002 0 0 0
419 140 2 0.52422 -7.509429977502688 -3.502833758640797 7.397007586429153 0 0 0
420 140 2 0.52422 -7.641750405547073 -4.729577471645009 6.51971549162092 0 0 0
424 142 1 -1.04844 -5.277292963429437 -4.939211343117346 3.4142806217012804 0 0 0
425 142 2 0.52422 -4.920099221284661 -4.108799717152116 3.0994435179085276 0 0 0
800 267 2 0.52422 -5.951911790750629 -1.6546476093837335 4.889123552709464 0 0 0
280 94 1 -1.04844 -4.82716407549246 -2.1668784503620078 1.9562410911298418 0 0 0
801 267 2 0.52422 -4.793006972719756 -0.7507005592160798 5.252262150696275 0 0 0
270 90 2 0.52422 -8.833425785860808 -4.042092206641254 9.005222590809785 0 0 0
799 267 1 -1.04844 -4.996015686212404 -1.6301216601480188 4.933352346427638 0 0 0
699 233 2 0.52422 -8.475956226757875 -1.4256047980802347 4.78038579081038 0 0 0
697 233 1 -1.04844 -7.725172955402188 -1.1653182047606059 4.246654179510486 0 0 0
315 105 2 0.52422 -9.190333681538371 -7.33240849022007 4.506994727064432 0 0 0
228 76 2 0.52422 -1.3528788744028049 -10.417809396224282 8.70971814923786 0 0 0
46 16 1 -1.04844 -6.390574740220419 -0.18067250762769405 0.6688519993595357 1 0 0
237 79 2 0.52422 -9.406613199602367 -4.260677483046208 3.1671444553106305 1 0 0
698 233 2 0.52422 -8.049165949326927 -1.1942225692642001 3.346385011392499 0 0 0
349 117 1 -1.04844 -9.367760058434168 -0.6251309222267007 9.291590745244305 0 0 0
726 242 2 0.52422 -4.888149690486763 -9.117445770328 6.524944128234607 0 1 0
282 94 2 0.52422 -5.165291390839487 -1.892632555080711 2.808739535343399 0 0 0
731 244 2 0.52422 -7.218623087598177 -1.395207240265485 6.8801016122049266 0 0 0
336 112 2 0.52422 -9.58389686036666 -3.9855370841921633 6.428454852958142 1 0 0
264 88 2 0.52422 -4.928580676968452 -8.084810151292416 9.314605923843777 0 0 0
47 16 2 0.52422 -5.903312920649984 -0.9437403409797493 0.9796573788045606 1 0 0
426 142 2 0.52422 -6.209085393852755 -4.896585069170867 3.1992391466399894 0 0 0
724 242 1 -1.04844 -5.2704591760810295 -9.390400038759344 5.69090022684694 0 1 0
351 117 2 0.52422 -9.248496497872642 -1.5456095893375323 9.525673271148134 0 0 0
394 132 1 -1.04844 -7.696190680911849 -8.148133488062605 2.1916461820031916 1 0 0
396 132 2 0.52422 -7.167308813266104 -8.941514694021055 2.10723850500173 1 0 0
732 244 2 0.52422 -7.531521321251136 -1.2063933513325065 8.349281161768724 0 0 0
116 39 2 0.52422 -6.149637273477925 -5.89791959019297 0.14038083470253682 0 0 0
474 158 2 0.52422 -9.758274961712775 -8.576308238763746 6.0899105035762435 0 1 -1
730 244 1 -1.04844 -6.87679487248036 -1.5747145044895614 7.756014358045066 0 0 0
350 117 2 0.52422 -9.070957120626097 -0.1411150059982269 10.062265085806144 0 0 0
262 88 1 -1.04844 -4.54400155462991 -8.210162729418975 8.447033006922299 0 0 0
263 88 2 0.52422 -4.443922163527266 -7.324234320379775 8.098597399764552 0 0 0
85 29 1 -1.04844 -3.667155860232686 -8.78716595293243 3.5806784318978195 0 0 0
395 132 2 0.52422 -8.584491576178353 -8.427089743549079 1.9693805826768163 1 0 0
86 29 2 0.52422 -3.050519919471915 -8.109313958733678 3.8573995523833684 0 0 0
87 29 2 0.52422 -4.177180141768075 -8.982984658231471 4.366698915680855 0 0 0
335 112 2 0.52422 10.247903276529433 -3.0919480870717333 6.5450199676286065 0 0 0
31 11 1 -1.04844 -4.711669460906454 -10.411141250773918 1.3381828219310261 0 0 0
379 127 1 -1.04844 10.095014560528897 -5.397653439547231 0.38739928116039835 0 0 0
243 81 2 0.52422 -7.666136512158198 -5.134077749567394 1.556480205674454 0 0 0
422 141 2 0.52422 -5.15445247784589 -1.6274616059849123 9.009292883830136 0 0 0
729 243 2 0.52422 -9.74339023967414 -0.5673756683606452 7.24180839025305 0 0 0
727 243 1 -1.04844 -9.735730143071944 -0.7699379642617146 6.306285343565024 0 0 0
281 94 2 0.52422 -3.9100501781358554 -1.8927273413289036 1.9623262427665225 0 0 0
334 112 1 -1.04844 -10.4801445471864 -3.8814805923792983 6.108735747647332 1 0 0
421 141 1 -1.04844 -4.485748372088106 -1.36059610141832 9.640096075102251 0 0 0
32 11 2 0.52422 -4.800969037739596 -9.621642772058632 0.8043103947616697 0 0 0
473 158 2 0.52422 10.170860672775037 -8.875715287888065 7.064482629227571 -1 1 -1
472 158 1 -1.04844 -10.293627112704542 -9.292839393349182 6.430903107835183 0 1 -1
386 129 2 0.52422 -8.323865223408724 -10.190383087357377 6.536111466372612 0 0 0
725 242 2 0.52422 -6.182577984190869 -9.592304144139279 5.899633846984356 0 1 0
423 141 2 0.52422 -3.9388739088133304 -0.7378720020479932 9.161100399113804 0 0 0
368 123 2 0.52422 10.347104059798417 -8.437580627789233 2.6308687349520934 0 0 0
367 123 1 -1.04844 10.514227694010119 -8.870503805075195 1.7936442525542269 0 0 0
369 123 2 0.52422 10.003722636684484 -8.368903722810728 1.1579717994784442 0 0 0
792 264 2 0.52422 4.132837682581904 -9.5608028255164 1.6330804320555607 0 1 0
332 111 2 0.52422 -2.2103670552869037 -2.0197404026860006 10.261591729118342 0 0 0
825 275 2 0.52422 10.161039750939727 -10.268950491561295 4.473386448120406 0 1 0
26 9 2 0.52422 -0.4790310544900187 -5.232420774474758 0.3712100789697459 0 0 0
798 266 2 0.52422 -2.9430193927128734 -4.549041551331035 9.715872066335061 0 0 0
797 266 2 0.52422 -1.6558791014957492 -3.831664836819588 9.368470655579467 0 0 0
752 251 2 0.52422 1.5332485082958076 -1.1454383880422672 3.7231311590177487 0 0 0
796 266 1 -1.04844 -2.24425148845736 -4.521822566918452 9.062208183603259 0 0 0
866 289 2 0.52422 -2.2949678445418034 -2.1891985585968623 0.34063845327176345 0 0 0
867 289 2 0.52422 -1.2496739407846515 -1.7300635050656386 1.3349268984727818 0 0 0
790 264 1 -1.04844 3.829234434692637 -10.000163049227217 0.8386728620696857 0 1 0
305 102 2 0.52422 -3.2692143959454922 -6.002877734534219 1.3629215495140965 0 0 0
324 108 2 0.52422 -1.7360918083822252 -9.928162113947332 2.182109130662221 0 0 0
322 108 1 -1.04844 -1.1965820930827817 -9.183813709924673 1.9153378606593279 0 0 0
860 287 2 0.52422 5.388276133387226 -9.845124943295271 6.259476570206877 0 1 0
687 229 2 0.52422 1.2625843965132653 -9.909672338403228 10.123949537122924 0 1 -1
346 116 1 -1.04844 2.6520573726900967 -2.9568207325601144 9.257416031378481 0 0 0
363 121 2 0.52422 -3.1263703987505984 -6.260056839426645 5.2493447082878415 0 0 0
439 147 1 -1.04844 1.3929889569331309 -7.359638093574315 6.75104335052127 0 0 0
362 121 2 0.52422 -1.8709576271618182 -6.180711626957849 4.406914378750981 0 0 0
361 121 1 -1.04844 -2.458605437228446 -6.8048977439693275 4.832771438070825 0 0 0
225 75 2 0.52422 -3.3733760172802496 -2.6676538755909114 5.3617769960036235 0 0 0
414 138 2 0.52422 -0.05629488179782882 -4.384923636459007 4.546209239634191 0 0 0
283 95 1 -1.04844 1.3627376037306238 -8.671088370076355 2.4146169242392155 0 0 0
309 103 2 0.52422 2.018150650734997 -4.817927090701668 4.082494325175297 0 0 0
345 115 2 0.52422 -0.9479736405403028 -5.64205013090069 2.723186974576844 0 0 0
356 119 2 0.52422 -3.3030132076117535 -9.291375640604997 9.073886657052467 0 0 0
397 133 1 -1.04844 10.17038138843032 -7.1525796824223375 4.111115208443129 0 0 0
560 187 2 0.52422 8.969248887521934 -0.6850826136685484 10.343564833507665 0 0 -1
253 85 1 -1.04844 -1.2838652970283153 -7.101008406460474 7.833247968025978 0 0 0
255 85 2 0.52422 -1.6670011018637645 -6.228879172248513 7.92754331557123 0 0 0
331 111 1 -1.04844 -1.274536337734137 -2.17414440025364 10.132467796672318 0 0 0
307 103 1 -1.04844 2.0995057119043743 -4.750741901067028 3.131093817325816 0 0 0
310 104 1 -1.04844 1.4984787424838597 -4.74661027611236 5.939197208319731 0 0 0
311 104 2 0.52422 1.2942562780694793 -5.605446731822337 6.309323278542292 0 0 0
312 104 2 0.52422 1.3031154151073956 -4.12895554493835 6.643916655108798 0 0 0
340 114 1 -1.04844 3.012202836236497 -6.763236861586069 1.4893542778549396 0 0 0
341 114 2 0.52422 2.6182370241675663 -7.576859845108116 1.8041718922692596 0 0 0
342 114 2 0.52422 2.736597566227932 -6.101835071734571 2.124090005116738 0 0 0
343 115 1 -1.04844 -1.1800254051733567 -6.072343622840326 1.900207540878462 0 0 0
344 115 2 0.52422 -0.8834369304709213 -6.975845061488385 2.0098305125258413 0 0 0
391 131 1 -1.04844 0.014964957638200715 -2.599544951576946 1.9504903863892267 0 0 0
393 131 2 0.52422 0.7929453049964472 -3.022529696656469 1.587003011593211 0 0 0
412 138 1 -1.04844 -0.8531407469243266 -4.321204118083147 4.019642812969028 0 0 0
223 75 1 -1.04844 -2.504060799249938 -2.937397064397503 5.658132931978388 0 0 0